S-opt                                                                   
Freq      RB3LYP                                                      def2SVP             
Number of atoms                            I               18
Info1-9                                    I   N=           9
          29          27        1002           0           0         100
           6          18        -502
Full Title                                 C   N=           1
S-opt       
Route                                      C   N=           3
#p opt freq b3lyp/def2SVP           
Charge                                     I                0
Multiplicity                               I                1
Number of electrons                        I               68
Number of alpha electrons                  I               34
Number of beta electrons                   I               34
Number of basis functions                  I              180
Number of independent functions            I              180
Number of point charges in /Mol/           I                0
Number of translation vectors              I                0
Atomic numbers                             I   N=          18
           6           6           6           6           6           6
           6           1           1           1           1           1
           6           1           6           1           6           1
Nuclear charges                            R   N=          18
  6.00000000E+00  6.00000000E+00  6.00000000E+00  6.00000000E+00  6.00000000E+00
  6.00000000E+00  6.00000000E+00  1.00000000E+00  1.00000000E+00  1.00000000E+00
  1.00000000E+00  1.00000000E+00  6.00000000E+00  1.00000000E+00  6.00000000E+00
  1.00000000E+00  6.00000000E+00  1.00000000E+00
Current cartesian coordinates              R   N=          54
 -4.74074591E+00  3.50346412E-05  5.70205390E-06 -3.61843867E+00  2.39664359E+00
 -4.63072313E-06 -1.04575694E+00  3.01703346E+00 -6.48192764E-06 -3.61860235E+00
 -2.39664426E+00  5.52331231E-06  1.05025699E+00  1.41841016E+00  2.42696229E-08
 -1.04586996E+00 -3.01697145E+00 -1.49375969E-06  1.05013106E+00 -1.41831279E+00
 -2.13675369E-06 -6.81066846E+00  1.90531676E-04  1.14779774E-05 -4.92683788E+00
  3.99758231E+00 -8.86524761E-06 -6.10316619E-01  5.04212066E+00 -1.04986996E-05
 -4.92696598E+00 -3.99760133E+00  9.08105541E-06 -6.10291894E-01 -5.04203700E+00
 -6.98406414E-06  3.60184148E+00  2.17645994E+00  2.34395163E-06  4.25836822E+00
  4.12895730E+00  3.38757817E-06  5.12841533E+00 -9.56885829E-05  5.64649564E-06
  7.19119579E+00 -2.75570647E-04  8.70081767E-06  3.60165954E+00 -2.17654070E+00
 -4.15216773E-06  4.25817339E+00 -4.12904069E+00 -8.36792472E-06
Number of symbols in /Mol/                 I                0
Force Field                                I                0
Atom Types                                 C   N=          18
                                                            
                                                            
                                                            
                                    
Int Atom Types                             I   N=          18
           0           0           0           0           0           0
           0           0           0           0           0           0
           0           0           0           0           0           0
MM charges                                 R   N=          18
  0.00000000E+00  0.00000000E+00  0.00000000E+00  0.00000000E+00  0.00000000E+00
  0.00000000E+00  0.00000000E+00  0.00000000E+00  0.00000000E+00  0.00000000E+00
  0.00000000E+00  0.00000000E+00  0.00000000E+00  0.00000000E+00  0.00000000E+00
  0.00000000E+00  0.00000000E+00  0.00000000E+00
Integer atomic weights                     I   N=          18
          12          12          12          12          12          12
          12           1           1           1           1           1
          12           1          12           1          12           1
Real atomic weights                        R   N=          18
  1.20000000E+01  1.20000000E+01  1.20000000E+01  1.20000000E+01  1.20000000E+01
  1.20000000E+01  1.20000000E+01  1.00782504E+00  1.00782504E+00  1.00782504E+00
  1.00782504E+00  1.00782504E+00  1.20000000E+01  1.00782504E+00  1.20000000E+01
  1.00782504E+00  1.20000000E+01  1.00782504E+00
Atom fragment info                         I   N=          18
           0           0           0           0           0           0
           0           0           0           0           0           0
           0           0           0           0           0           0
Atom residue num                           I   N=          18
           0           0           0           0           0           0
           0           0           0           0           0           0
           0           0           0           0           0           0
Nuclear spins                              I   N=          18
           0           0           0           0           0           0
           0           1           1           1           1           1
           0           1           0           1           0           1
Nuclear ZEff                               R   N=          18
 -3.60000000E+00 -3.60000000E+00 -3.60000000E+00 -3.60000000E+00 -3.60000000E+00
 -3.60000000E+00 -3.60000000E+00 -1.00000000E+00 -1.00000000E+00 -1.00000000E+00
 -1.00000000E+00 -1.00000000E+00 -3.60000000E+00 -1.00000000E+00 -3.60000000E+00
 -1.00000000E+00 -3.60000000E+00 -1.00000000E+00
Nuclear ZNuc                               R   N=          18
  6.00000000E+00  6.00000000E+00  6.00000000E+00  6.00000000E+00  6.00000000E+00
  6.00000000E+00  6.00000000E+00  1.00000000E+00  1.00000000E+00  1.00000000E+00
  1.00000000E+00  1.00000000E+00  6.00000000E+00  1.00000000E+00  6.00000000E+00
  1.00000000E+00  6.00000000E+00  1.00000000E+00
Nuclear QMom                               R   N=          18
  0.00000000E+00  0.00000000E+00  0.00000000E+00  0.00000000E+00  0.00000000E+00
  0.00000000E+00  0.00000000E+00  0.00000000E+00  0.00000000E+00  0.00000000E+00
  0.00000000E+00  0.00000000E+00  0.00000000E+00  0.00000000E+00  0.00000000E+00
  0.00000000E+00  0.00000000E+00  0.00000000E+00
Nuclear GFac                               R   N=          18
  0.00000000E+00  0.00000000E+00  0.00000000E+00  0.00000000E+00  0.00000000E+00
  0.00000000E+00  0.00000000E+00  2.79284600E+00  2.79284600E+00  2.79284600E+00
  2.79284600E+00  2.79284600E+00  0.00000000E+00  2.79284600E+00  0.00000000E+00
  2.79284600E+00  0.00000000E+00  2.79284600E+00
MicOpt                                     I   N=          18
          -1          -1          -1          -1          -1          -1
          -1          -1          -1          -1          -1          -1
          -1          -1          -1          -1          -1          -1
Number of residues                         I                0
Number of secondary structures             I                0
Redundant internal dimensions              I   N=           4
          93          19          30          44
Redundant internal coordinate indices      I   N=         372
           1           2           0           0           1           4
           0           0           1           8           0           0
           2           3           0           0           2           9
           0           0           3           5           0           0
           3          10           0           0           4           6
           0           0           4          11           0           0
           5           7           0           0           5          13
           0           0           6           7           0           0
           6          12           0           0           7          17
           0           0          13          14           0           0
          13          15           0           0          15          16
           0           0          15          17           0           0
          17          18           0           0           2           1
           4           0           2           1           8           0
           4           1           8           0           1           2
           3           0           1           2           9           0
           3           2           9           0           2           3
           5           0           2           3          10           0
           5           3          10           0           1           4
           6           0           1           4          11           0
           6           4          11           0           3           5
           7           0           3           5          13           0
           7           5          13           0           4           6
           7           0           4           6          12           0
           7           6          12           0           5           7
           6           0           5           7          17           0
           6           7          17           0           5          13
          14           0           5          13          15           0
          14          13          15           0          13          15
          16           0          13          15          17           0
          16          15          17           0           7          17
          15           0           7          17          18           0
          15          17          18           0           4           1
           2           3           4           1           2           9
           8           1           2           3           8           1
           2           9           2           1           4           6
           2           1           4          11           8           1
           4           6           8           1           4          11
           1           2           3           5           1           2
           3          10           9           2           3           5
           9           2           3          10           2           3
           5           7           2           3           5          13
          10           3           5           7          10           3
           5          13           1           4           6           7
           1           4           6          12          11           4
           6           7          11           4           6          12
           3           5           7           6           3           5
           7          17          13           5           7           6
          13           5           7          17           3           5
          13          14           3           5          13          15
           7           5          13          14           7           5
          13          15           4           6           7           5
           4           6           7          17          12           6
           7           5          12           6           7          17
           5           7          17          15           5           7
          17          18           6           7          17          15
           6           7          17          18           5          13
          15          16           5          13          15          17
          14          13          15          16          14          13
          15          17          13          15          17           7
          13          15          17          18          16          15
          17           7          16          15          17          18
Redundant internal coordinates             R   N=          93
  2.64637603E+00  2.64637069E+00  2.06992256E+00  2.64642682E+00  2.06758634E+00
  2.63607110E+00  2.07137309E+00  2.64646137E+00  2.06757804E+00  2.83672295E+00
  2.66180819E+00  2.63608228E+00  2.07138087E+00  2.66180524E+00  2.05992071E+00
  2.65853759E+00  2.06278047E+00  2.65855151E+00  2.05991909E+00  2.26574168E+00
  2.00868036E+00  2.00876326E+00  2.24538302E+00  2.01845041E+00  2.01935188E+00
  2.25338741E+00  2.01922200E+00  2.01057590E+00  2.24528816E+00  2.01853669E+00
  2.01936045E+00  2.22232965E+00  2.20123017E+00  1.85962549E+00  2.25340128E+00
  2.01926170E+00  2.01052233E+00  2.22243207E+00  1.85960685E+00  2.20114638E+00
  2.18395412E+00  1.89365733E+00  2.20557386E+00  2.18252930E+00  1.91822119E+00
  2.18243481E+00  1.89366710E+00  2.18401793E+00  2.20550027E+00 -5.56992569E-06
  3.14158891E+00  3.14158917E+00 -1.65013120E-06  1.79884853E-06 -3.14158946E+00
  3.14159236E+00  1.10830986E-06  6.90777718E-07 -3.14159003E+00  3.14159151E+00
  7.93967653E-07  5.74833418E-06 -3.14159047E+00 -3.14158883E+00  2.58954573E-07
  3.87490364E-06 -3.14158895E+00 -3.14159018E+00  2.29912894E-06 -4.57288451E-06
  3.14158841E+00  3.14159108E+00 -1.24645341E-06  2.42591636E-06 -3.14159125E+00
  3.14159212E+00 -1.55408467E-06 -2.07463554E-06  3.14159019E+00  3.14159075E+00
 -2.28464495E-06  3.57015776E-06 -3.14159125E+00 -3.14158876E+00  1.71919625E-06
 -3.14159222E+00  3.86638474E-06 -6.06753620E-07 -3.14158983E+00 -4.68740416E-06
  3.14159017E+00  3.14159140E+00  9.49006279E-07
ZRed-IntVec                                I   N=          93
           0           0           0           0           0           0
           0           0           0           0           0           0
           0           0           0           0           0           0
           0           0           0           0           0           0
           0           0           0           0           0           0
           0           0           0           0           0           0
           0           0           0           0           0           0
           0           0           0           0           0           0
           0           0           0           0           0           0
           0           0           0           0           0           0
           0           0           0           0           0           0
           0           0           0           0           0           0
           0           0           0           0           0           0
           0           0           0           0           0           0
           0           0           0           0           0           0
           0           0           0
ZRed-FPVec                                 R   N=          93
  0.00000000E+00  0.00000000E+00  0.00000000E+00  0.00000000E+00  0.00000000E+00
  0.00000000E+00  0.00000000E+00  0.00000000E+00  0.00000000E+00  0.00000000E+00
  0.00000000E+00  0.00000000E+00  0.00000000E+00  0.00000000E+00  0.00000000E+00
  0.00000000E+00  0.00000000E+00  0.00000000E+00  0.00000000E+00  0.00000000E+00
  0.00000000E+00  0.00000000E+00  0.00000000E+00  0.00000000E+00  0.00000000E+00
  0.00000000E+00  0.00000000E+00  0.00000000E+00  0.00000000E+00  0.00000000E+00
  0.00000000E+00  0.00000000E+00  0.00000000E+00  0.00000000E+00  0.00000000E+00
  0.00000000E+00  0.00000000E+00  0.00000000E+00  0.00000000E+00  0.00000000E+00
  0.00000000E+00  0.00000000E+00  0.00000000E+00  0.00000000E+00  0.00000000E+00
  0.00000000E+00  0.00000000E+00  0.00000000E+00  0.00000000E+00  0.00000000E+00
  0.00000000E+00  0.00000000E+00  0.00000000E+00  0.00000000E+00  0.00000000E+00
  0.00000000E+00  0.00000000E+00  0.00000000E+00  0.00000000E+00  0.00000000E+00
  0.00000000E+00  0.00000000E+00  0.00000000E+00  0.00000000E+00  0.00000000E+00
  0.00000000E+00  0.00000000E+00  0.00000000E+00  0.00000000E+00  0.00000000E+00
  0.00000000E+00  0.00000000E+00  0.00000000E+00  0.00000000E+00  0.00000000E+00
  0.00000000E+00  0.00000000E+00  0.00000000E+00  0.00000000E+00  0.00000000E+00
  0.00000000E+00  0.00000000E+00  0.00000000E+00  0.00000000E+00  0.00000000E+00
  0.00000000E+00  0.00000000E+00  0.00000000E+00  0.00000000E+00  0.00000000E+00
  0.00000000E+00  0.00000000E+00  0.00000000E+00
ZRed-Constraint1                           R   N=          93
  2.64637603E+00  2.64637069E+00  2.06992256E+00  2.64642682E+00  2.06758634E+00
  2.63607110E+00  2.07137309E+00  2.64646137E+00  2.06757804E+00  2.83672295E+00
  2.66180819E+00  2.63608228E+00  2.07138087E+00  2.66180524E+00  2.05992071E+00
  2.65853759E+00  2.06278047E+00  2.65855151E+00  2.05991909E+00  2.26574168E+00
  2.00868036E+00  2.00876326E+00  2.24538302E+00  2.01845041E+00  2.01935188E+00
  2.25338741E+00  2.01922200E+00  2.01057590E+00  2.24528816E+00  2.01853669E+00
  2.01936045E+00  2.22232965E+00  2.20123017E+00  1.85962549E+00  2.25340128E+00
  2.01926170E+00  2.01052233E+00  2.22243207E+00  1.85960685E+00  2.20114638E+00
  2.18395412E+00  1.89365733E+00  2.20557386E+00  2.18252930E+00  1.91822119E+00
  2.18243481E+00  1.89366710E+00  2.18401793E+00  2.20550027E+00 -5.56992569E-06
  3.14158891E+00  3.14158917E+00 -1.65013120E-06  1.79884853E-06 -3.14158946E+00
  3.14159236E+00  1.10820969E-06  6.90777718E-07 -3.14159003E+00  3.14159151E+00
  7.93967653E-07  5.74833418E-06 -3.14159047E+00 -3.14158883E+00  2.58954573E-07
  3.87487499E-06 -3.14158895E+00 -3.14159018E+00  2.29912894E-06 -4.57288451E-06
  3.14158841E+00  3.14159108E+00 -1.24627526E-06  2.42591636E-06 -3.14159125E+00
  3.14159212E+00 -1.55408467E-06 -2.07463554E-06  3.14159019E+00  3.14159075E+00
 -2.28464495E-06  3.57015776E-06 -3.14159125E+00 -3.14158876E+00  1.71913167E-06
 -3.14159222E+00  3.86638474E-06 -6.06753620E-07 -3.14158983E+00 -4.68740416E-06
  3.14159017E+00  3.14159140E+00  9.49006279E-07
ZRed-Constraint2                           R   N=          93
  2.64707814E+00  2.64685771E+00  2.07053134E+00  2.64726019E+00  2.06803471E+00
  2.63686088E+00  2.07193040E+00  2.64703532E+00  2.06818822E+00  2.83748427E+00
  2.66268507E+00  2.63676098E+00  2.07192470E+00  2.66251405E+00  2.06058769E+00
  2.65926166E+00  2.06342042E+00  2.65920827E+00  2.06062246E+00  2.26580637E+00
  2.00871260E+00  2.00866633E+00  2.24540182E+00  2.01832915E+00  2.01945433E+00
  2.25337199E+00  2.01917705E+00  2.01063626E+00  2.24517987E+00  2.01866920E+00
  2.01933624E+00  2.22219277E+00  2.20143720E+00  1.85955534E+00  2.25355416E+00
  2.01906580E+00  2.01056535E+00  2.22245628E+00  1.85963068E+00  2.20109835E+00
  2.18425583E+00  1.89367694E+00  2.20525254E+00  2.18265259E+00  1.91819779E+00
  2.18233493E+00  1.89371722E+00  2.18440596E+00  2.20506212E+00 -1.49858942E-05
  3.14158193E+00  3.14157735E+00 -1.10417705E-05  6.93024156E-06 -3.14159240E+00
 -3.14158540E+00  5.73452753E-07  3.59386847E-06 -3.14158968E+00  3.14159198E+00
 -1.29408671E-06  1.12541260E-05 -3.14158001E+00 -3.14158078E+00  1.32618995E-05
  6.24632434E-06 -3.14159067E+00 -3.14157973E+00  8.66051079E-06 -9.58531600E-06
 -3.14159172E+00  3.14158190E+00 -2.41656225E-07  3.69948149E-06  3.14159176E+00
 -3.14158780E+00  2.59810623E-07 -3.67470007E-06  3.14157650E+00 -3.14159208E+00
 -1.19020361E-05  1.31603492E-07  3.14158784E+00 -3.14158217E+00  5.53316855E-06
 -3.14159145E+00 -1.87304692E-07 -3.45803270E-06  3.14158780E+00  3.65002415E-08
 -3.14158760E+00  3.14159129E+00  3.65707406E-06
SymInf integers                            I   N=          26
           1           1           1           1           1           0
           0           0           0           0           0           0
           0           0           0           0           0           0
           0           0           0           0           0           0
           0           0
RotTr to input orientation                 R   N=          12
  1.00000000E+00  2.32918062E-05  0.00000000E+00  2.32918062E-05 -1.00000000E+00
  0.00000000E+00  0.00000000E+00  0.00000000E+00 -1.00000000E+00  1.52335253E-05
  7.20824737E-05 -3.87521648E-06
Number of contracted shells                I               84
Number of primitive shells                 I              160
Pure/Cartesian d shells                    I                0
Pure/Cartesian f shells                    I                0
Highest angular momentum                   I                2
Largest degree of contraction              I                5
Shell types                                I   N=          84
           0           0           0           1           1          -2
           0           0           0           1           1          -2
           0           0           0           1           1          -2
           0           0           0           1           1          -2
           0           0           0           1           1          -2
           0           0           0           1           1          -2
           0           0           0           1           1          -2
           0           0           1           0           0           1
           0           0           1           0           0           1
           0           0           1           0           0           0
           1           1          -2           0           0           1
           0           0           0           1           1          -2
           0           0           1           0           0           0
           1           1          -2           0           0           1
Number of primitives per shell             I   N=          84
           5           1           1           3           1           1
           5           1           1           3           1           1
           5           1           1           3           1           1
           5           1           1           3           1           1
           5           1           1           3           1           1
           5           1           1           3           1           1
           5           1           1           3           1           1
           3           1           1           3           1           1
           3           1           1           3           1           1
           3           1           1           5           1           1
           3           1           1           3           1           1
           5           1           1           3           1           1
           3           1           1           5           1           1
           3           1           1           3           1           1
Shell to atom map                          I   N=          84
           1           1           1           1           1           1
           2           2           2           2           2           2
           3           3           3           3           3           3
           4           4           4           4           4           4
           5           5           5           5           5           5
           6           6           6           6           6           6
           7           7           7           7           7           7
           8           8           8           9           9           9
          10          10          10          11          11          11
          12          12          12          13          13          13
          13          13          13          14          14          14
          15          15          15          15          15          15
          16          16          16          17          17          17
          17          17          17          18          18          18
Primitive exponents                        R   N=         160
  1.23840169E+03  1.86290050E+02  4.22511763E+01  1.16765579E+01  3.59305065E+00
  4.02451474E-01  1.30901827E-01  9.46809706E+00  2.01035451E+00  5.47710047E-01
  1.52686138E-01  8.00000000E-01  1.23840169E+03  1.86290050E+02  4.22511763E+01
  1.16765579E+01  3.59305065E+00  4.02451474E-01  1.30901827E-01  9.46809706E+00
  2.01035451E+00  5.47710047E-01  1.52686138E-01  8.00000000E-01  1.23840169E+03
  1.86290050E+02  4.22511763E+01  1.16765579E+01  3.59305065E+00  4.02451474E-01
  1.30901827E-01  9.46809706E+00  2.01035451E+00  5.47710047E-01  1.52686138E-01
  8.00000000E-01  1.23840169E+03  1.86290050E+02  4.22511763E+01  1.16765579E+01
  3.59305065E+00  4.02451474E-01  1.30901827E-01  9.46809706E+00  2.01035451E+00
  5.47710047E-01  1.52686138E-01  8.00000000E-01  1.23840169E+03  1.86290050E+02
  4.22511763E+01  1.16765579E+01  3.59305065E+00  4.02451474E-01  1.30901827E-01
  9.46809706E+00  2.01035451E+00  5.47710047E-01  1.52686138E-01  8.00000000E-01
  1.23840169E+03  1.86290050E+02  4.22511763E+01  1.16765579E+01  3.59305065E+00
  4.02451474E-01  1.30901827E-01  9.46809706E+00  2.01035451E+00  5.47710047E-01
  1.52686138E-01  8.00000000E-01  1.23840169E+03  1.86290050E+02  4.22511763E+01
  1.16765579E+01  3.59305065E+00  4.02451474E-01  1.30901827E-01  9.46809706E+00
  2.01035451E+00  5.47710047E-01  1.52686138E-01  8.00000000E-01  1.30107010E+01
  1.96225720E+00  4.44537960E-01  1.21949620E-01  8.00000000E-01  1.30107010E+01
  1.96225720E+00  4.44537960E-01  1.21949620E-01  8.00000000E-01  1.30107010E+01
  1.96225720E+00  4.44537960E-01  1.21949620E-01  8.00000000E-01  1.30107010E+01
  1.96225720E+00  4.44537960E-01  1.21949620E-01  8.00000000E-01  1.30107010E+01
  1.96225720E+00  4.44537960E-01  1.21949620E-01  8.00000000E-01  1.23840169E+03
  1.86290050E+02  4.22511763E+01  1.16765579E+01  3.59305065E+00  4.02451474E-01
  1.30901827E-01  9.46809706E+00  2.01035451E+00  5.47710047E-01  1.52686138E-01
  8.00000000E-01  1.30107010E+01  1.96225720E+00  4.44537960E-01  1.21949620E-01
  8.00000000E-01  1.23840169E+03  1.86290050E+02  4.22511763E+01  1.16765579E+01
  3.59305065E+00  4.02451474E-01  1.30901827E-01  9.46809706E+00  2.01035451E+00
  5.47710047E-01  1.52686138E-01  8.00000000E-01  1.30107010E+01  1.96225720E+00
  4.44537960E-01  1.21949620E-01  8.00000000E-01  1.23840169E+03  1.86290050E+02
  4.22511763E+01  1.16765579E+01  3.59305065E+00  4.02451474E-01  1.30901827E-01
  9.46809706E+00  2.01035451E+00  5.47710047E-01  1.52686138E-01  8.00000000E-01
  1.30107010E+01  1.96225720E+00  4.44537960E-01  1.21949620E-01  8.00000000E-01
Contraction coefficients                   R   N=         160
  5.51736505E-03  4.10888286E-02  1.82253821E-01  4.68284594E-01  4.45758173E-01
  1.00000000E+00  1.00000000E+00  5.68883320E-02  3.12940593E-01  7.60650165E-01
  1.00000000E+00  1.00000000E+00  5.51736505E-03  4.10888286E-02  1.82253821E-01
  4.68284594E-01  4.45758173E-01  1.00000000E+00  1.00000000E+00  5.68883320E-02
  3.12940593E-01  7.60650165E-01  1.00000000E+00  1.00000000E+00  5.51736505E-03
  4.10888286E-02  1.82253821E-01  4.68284594E-01  4.45758173E-01  1.00000000E+00
  1.00000000E+00  5.68883320E-02  3.12940593E-01  7.60650165E-01  1.00000000E+00
  1.00000000E+00  5.51736505E-03  4.10888286E-02  1.82253821E-01  4.68284594E-01
  4.45758173E-01  1.00000000E+00  1.00000000E+00  5.68883320E-02  3.12940593E-01
  7.60650165E-01  1.00000000E+00  1.00000000E+00  5.51736505E-03  4.10888286E-02
  1.82253821E-01  4.68284594E-01  4.45758173E-01  1.00000000E+00  1.00000000E+00
  5.68883320E-02  3.12940593E-01  7.60650165E-01  1.00000000E+00  1.00000000E+00
  5.51736505E-03  4.10888286E-02  1.82253821E-01  4.68284594E-01  4.45758173E-01
  1.00000000E+00  1.00000000E+00  5.68883320E-02  3.12940593E-01  7.60650165E-01
  1.00000000E+00  1.00000000E+00  5.51736505E-03  4.10888286E-02  1.82253821E-01
  4.68284594E-01  4.45758173E-01  1.00000000E+00  1.00000000E+00  5.68883320E-02
  3.12940593E-01  7.60650165E-01  1.00000000E+00  1.00000000E+00  3.34854848E-02
  2.34721871E-01  8.13770285E-01  1.00000000E+00  1.00000000E+00  3.34854848E-02
  2.34721871E-01  8.13770285E-01  1.00000000E+00  1.00000000E+00  3.34854848E-02
  2.34721871E-01  8.13770285E-01  1.00000000E+00  1.00000000E+00  3.34854848E-02
  2.34721871E-01  8.13770285E-01  1.00000000E+00  1.00000000E+00  3.34854848E-02
  2.34721871E-01  8.13770285E-01  1.00000000E+00  1.00000000E+00  5.51736505E-03
  4.10888286E-02  1.82253821E-01  4.68284594E-01  4.45758173E-01  1.00000000E+00
  1.00000000E+00  5.68883320E-02  3.12940593E-01  7.60650165E-01  1.00000000E+00
  1.00000000E+00  3.34854848E-02  2.34721871E-01  8.13770285E-01  1.00000000E+00
  1.00000000E+00  5.51736505E-03  4.10888286E-02  1.82253821E-01  4.68284594E-01
  4.45758173E-01  1.00000000E+00  1.00000000E+00  5.68883320E-02  3.12940593E-01
  7.60650165E-01  1.00000000E+00  1.00000000E+00  3.34854848E-02  2.34721871E-01
  8.13770285E-01  1.00000000E+00  1.00000000E+00  5.51736505E-03  4.10888286E-02
  1.82253821E-01  4.68284594E-01  4.45758173E-01  1.00000000E+00  1.00000000E+00
  5.68883320E-02  3.12940593E-01  7.60650165E-01  1.00000000E+00  1.00000000E+00
  3.34854848E-02  2.34721871E-01  8.13770285E-01  1.00000000E+00  1.00000000E+00
Coordinates of each shell                  R   N=         252
 -4.74074591E+00  3.50346412E-05  5.70205390E-06 -4.74074591E+00  3.50346412E-05
  5.70205390E-06 -4.74074591E+00  3.50346412E-05  5.70205390E-06 -4.74074591E+00
  3.50346412E-05  5.70205390E-06 -4.74074591E+00  3.50346412E-05  5.70205390E-06
 -4.74074591E+00  3.50346412E-05  5.70205390E-06 -3.61843867E+00  2.39664359E+00
 -4.63072313E-06 -3.61843867E+00  2.39664359E+00 -4.63072313E-06 -3.61843867E+00
  2.39664359E+00 -4.63072313E-06 -3.61843867E+00  2.39664359E+00 -4.63072313E-06
 -3.61843867E+00  2.39664359E+00 -4.63072313E-06 -3.61843867E+00  2.39664359E+00
 -4.63072313E-06 -1.04575694E+00  3.01703346E+00 -6.48192764E-06 -1.04575694E+00
  3.01703346E+00 -6.48192764E-06 -1.04575694E+00  3.01703346E+00 -6.48192764E-06
 -1.04575694E+00  3.01703346E+00 -6.48192764E-06 -1.04575694E+00  3.01703346E+00
 -6.48192764E-06 -1.04575694E+00  3.01703346E+00 -6.48192764E-06 -3.61860235E+00
 -2.39664426E+00  5.52331231E-06 -3.61860235E+00 -2.39664426E+00  5.52331231E-06
 -3.61860235E+00 -2.39664426E+00  5.52331231E-06 -3.61860235E+00 -2.39664426E+00
  5.52331231E-06 -3.61860235E+00 -2.39664426E+00  5.52331231E-06 -3.61860235E+00